Variables= "Num" "PType" "X" "Y" "VX" "VY" "P" "sxx" "sxy" "syy" "m" "h" "rho" "GammaDot""Vorticity""Okubo_Weiss" 
Zone
0	0	0.0000000000000000e+00	5.2000000000000002e-01	0.0000000000000000e+00	0.0000000000000000e+00	0.0000000000000000e+00	0.0000000000000000e+00	0.0000000000000000e+00	0.0000000000000000e+00	7.7967800000000004e-02	1.8200000000000001e-02	1.5500000000000000e+03	4.3432609779638658e-311	4.3432609779085304e-311	4.3432609779638658e-311
1	0	0.0000000000000000e+00	5.1333300000000004e-01	0.0000000000000000e+00	0.0000000000000000e+00	0.0000000000000000e+00	0.0000000000000000e+00	0.0000000000000000e+00	0.0000000000000000e+00	7.7967800000000004e-02	1.8200000000000001e-02	1.5500000000000000e+03	4.3432609779638658e-311	4.3432609779085304e-311	4.3432609779638658e-311
2	0	0.0000000000000000e+00	5.0666699999999998e-01	0.0000000000000000e+00	0.0000000000000000e+00	0.0000000000000000e+00	0.0000000000000000e+00	0.0000000000000000e+00	0.0000000000000000e+00	7.7967800000000004e-02	1.8200000000000001e-02	1.5500000000000000e+03	4.3432609779638658e-311	4.3432609779085304e-311	4.3432609779638658e-311
3	0	0.0000000000000000e+00	5.0000000000000000e-01	0.0000000000000000e+00	0.0000000000000000e+00	0.0000000000000000e+00	0.0000000000000000e+00	0.0000000000000000e+00	0.0000000000000000e+00	7.7967800000000004e-02	1.8200000000000001e-02	1.5500000000000000e+03	4.3432609779638658e-311	4.3432609779085304e-311	4.3432609779638658e-311
4	11	7.1428600000000000e-03	5.0000000000000000e-01	0.0000000000000000e+00	0.0000000000000000e+00	0.0000000000000000e+00	0.0000000000000000e+00	0.0000000000000000e+00	0.0000000000000000e+00	7.7967800000000004e-02	1.8200000000000001e-02	1.5500000000000000e+03	4.3432609779638658e-311	4.3432609779085304e-311	4.3432609779638658e-311
5	11	1.4285700000000000e-02	5.0000000000000000e-01	0.0000000000000000e+00	0.0000000000000000e+00	0.0000000000000000e+00	0.0000000000000000e+00	0.0000000000000000e+00	0.0000000000000000e+00	7.7967800000000004e-02	1.8200000000000001e-02	1.5500000000000000e+03	4.3432609779638658e-311	4.3432609779085304e-311	4.3432609779638658e-311
6	0	0.0000000000000000e+00	4.9295800000000001e-01	0.0000000000000000e+00	0.0000000000000000e+00	0.0000000000000000e+00	0.0000000000000000e+00	0.0000000000000000e+00	0.0000000000000000e+00	7.7967800000000004e-02	1.8200000000000001e-02	1.5500000000000000e+03	4.3432609779638658e-311	4.3432609779085304e-311	4.3432609779638658e-311
7	11	7.1428699999999999e-03	4.9295800000000001e-01	0.0000000000000000e+00	0.0000000000000000e+00	0.0000000000000000e+00	0.0000000000000000e+00	0.0000000000000000e+00	0.0000000000000000e+00	7.7967800000000004e-02	1.8200000000000001e-02	1.5500000000000000e+03	4.3432609779638658e-311	4.3432609779085304e-311	4.3432609779638658e-311
8	11	2.1428599999999999e-02	5.0000000000000000e-01	0.0000000000000000e+00	0.0000000000000000e+00	0.0000000000000000e+00	0.0000000000000000e+00	0.0000000000000000e+00	0.0000000000000000e+00	7.7967800000000004e-02	1.8200000000000001e-02	1.5500000000000000e+03	4.3432609779638658e-311	4.3432609779085304e-311	4.3432609779638658e-311
9	11	1.4285700000000000e-02	4.9295800000000001e-01	0.0000000000000000e+00	0.0000000000000000e+00	0.0000000000000000e+00	0.0000000000000000e+00	0.0000000000000000e+00	0.0000000000000000e+00	7.7967800000000004e-02	1.8200000000000001e-02	1.5500000000000000e+03	4.3432609779638658e-311	4.3432609779085304e-311	4.3432609779638658e-311
10	0	0.0000000000000000e+00	4.8591499999999999e-01	0.0000000000000000e+00	0.0000000000000000e+00	0.0000000000000000e+00	0.0000000000000000e+00	0.0000000000000000e+00	0.0000000000000000e+00	7.7967800000000004e-02	1.8200000000000001e-02	1.5500000000000000e+03	4.3432609779638658e-311	4.3432609779085304e-311	4.3432609779638658e-311
11	11	2.1428599999999999e-02	4.9295800000000001e-01	0.0000000000000000e+00	0.0000000000000000e+00	0.0000000000000000e+00	0.0000000000000000e+00	0.0000000000000000e+00	0.0000000000000000e+00	7.7967800000000004e-02	1.8200000000000001e-02	1.5500000000000000e+03	4.3432609779638658e-311	4.3432609779085304e-311	4.3432609779638658e-311
12	11	7.1429099999999997e-03	4.8591499999999999e-01	0.0000000000000000e+00	0.0000000000000000e+00	0.0000000000000000e+00	0.0000000000000000e+00	0.0000000000000000e+00	0.0000000000000000e+00	7.7967800000000004e-02	1.8200000000000001e-02	1.5500000000000000e+03	4.3432609779638658e-311	4.3432609779085304e-311	4.3432609779638658e-311
13	11	2.8571400000000000e-02	5.0000000000000000e-01	0.0000000000000000e+00	0.0000000000000000e+00	0.0000000000000000e+00	0.0000000000000000e+00	0.0000000000000000e+00	0.0000000000000000e+00	7.7967800000000004e-02	1.8200000000000001e-02	1.5500000000000000e+03	4.3432609779638658e-311	4.3432609779085304e-311	4.3432609779638658e-311
14	11	1.4285800000000000e-02	4.8591499999999999e-01	0.0000000000000000e+00	0.0000000000000000e+00	0.0000000000000000e+00	0.0000000000000000e+00	0.0000000000000000e+00	0.0000000000000000e+00	7.7967800000000004e-02	1.8200000000000001e-02	1.5500000000000000e+03	4.3432609779638658e-311	4.3432609779085304e-311	4.3432609779638658e-311
15	11	2.8571500000000000e-02	4.9295800000000001e-01	0.0000000000000000e+00	0.0000000000000000e+00	0.0000000000000000e+00	0.0000000000000000e+00	0.0000000000000000e+00	0.0000000000000000e+00	7.7967800000000004e-02	1.8200000000000001e-02	1.5500000000000000e+03	4.3432609779638658e-311	4.3432609779085304e-311	4.3432609779638658e-311
16	11	2.1428699999999998e-02	4.8591499999999999e-01	0.0000000000000000e+00	0.0000000000000000e+00	0.0000000000000000e+00	0.0000000000000000e+00	0.0000000000000000e+00	0.0000000000000000e+00	7.7967800000000004e-02	1.8200000000000001e-02	1.5500000000000000e+03	4.3432609779638658e-311	4.3432609779085304e-311	4.3432609779638658e-311
17	11	3.5714299999999997e-02	5.0000000000000000e-01	0.0000000000000000e+00	0.0000000000000000e+00	0.0000000000000000e+00	0.0000000000000000e+00	0.0000000000000000e+00	0.0000000000000000e+00	7.7967800000000004e-02	1.8200000000000001e-02	1.5500000000000000e+03	4.3432609779638658e-311	4.3432609779085304e-311	4.3432609779638658e-311
18	0	0.0000000000000000e+00	4.7887299999999999e-01	0.0000000000000000e+00	0.0000000000000000e+00	0.0000000000000000e+00	0.0000000000000000e+00	0.0000000000000000e+00	0.0000000000000000e+00	7.7967800000000004e-02	1.8200000000000001e-02	1.5500000000000000e+03	4.3432609779638658e-311	4.3432609779085304e-311	4.3432609779638658e-311
19	11	7.1429800000000002e-03	4.7887299999999999e-01	0.0000000000000000e+00	0.0000000000000000e+00	0.0000000000000000e+00	0.0000000000000000e+00	0.0000000000000000e+00	0.0000000000000000e+00	7.7967800000000004e-02	1.8200000000000001e-02	1.5500000000000000e+03	4.3432609779638658e-311	4.3432609779085304e-311	4.3432609779638658e-311
20	11	1.4286000000000000e-02	4.7887299999999999e-01	0.0000000000000000e+00	0.0000000000000000e+00	0.0000000000000000e+00	0.0000000000000000e+00	0.0000000000000000e+00	0.0000000000000000e+00	7.7967800000000004e-02	1.8200000000000001e-02	1.5500000000000000e+03	4.3432609779638658e-311	4.3432609779085304e-311	4.3432609779638658e-311
21	11	2.8571699999999998e-02	4.8591499999999999e-01	0.0000000000000000e+00	0.0000000000000000e+00	0.0000000000000000e+00	0.0000000000000000e+00	0.0000000000000000e+00	0.0000000000000000e+00	7.7967800000000004e-02	1.8200000000000001e-02	1.5500000000000000e+03	4.3432609779638658e-311	4.3432609779085304e-311	4.3432609779638658e-311
22	11	3.5714400000000000e-02	4.9295800000000001e-01	0.0000000000000000e+00	0.0000000000000000e+00	0.0000000000000000e+00	0.0000000000000000e+00	0.0000000000000000e+00	0.0000000000000000e+00	7.7967800000000004e-02	1.8200000000000001e-02	1.5500000000000000e+03	4.3432609779638658e-311	4.3432609779085304e-311	4.3432609779638658e-311
23	11	2.1428900000000001e-02	4.7887299999999999e-01	0.0000000000000000e+00	0.0000000000000000e+00	0.0000000000000000e+00	0.0000000000000000e+00	0.0000000000000000e+00	0.0000000000000000e+00	7.7967800000000004e-02	1.8200000000000001e-02	1.5500000000000000e+03	4.3432609779638658e-311	4.3432609779085304e-311	4.3432609779638658e-311
24	11	4.2857100000000002e-02	5.0000000000000000e-01	0.0000000000000000e+00	0.0000000000000000e+00	0.0000000000000000e+00	0.0000000000000000e+00	0.0000000000000000e+00	0.0000000000000000e+00	7.7967800000000004e-02	1.8200000000000001e-02	1.5500000000000000e+03	4.3432609779638658e-311	4.3432609779085304e-311	4.3432609779638658e-311
25	0	0.0000000000000000e+00	4.7183100000000000e-01	0.0000000000000000e+00	0.0000000000000000e+00	0.0000000000000000e+00	0.0000000000000000e+00	0.0000000000000000e+00	0.0000000000000000e+00	7.7967800000000004e-02	1.8200000000000001e-02	1.5500000000000000e+03	4.3432609779638658e-311	4.3432609779085304e-311	4.3432609779638658e-311
26	11	7.1430799999999996e-03	4.7183100000000000e-01	0.0000000000000000e+00	0.0000000000000000e+00	0.0000000000000000e+00	0.0000000000000000e+00	0.0000000000000000e+00	0.0000000000000000e+00	7.7967800000000004e-02	1.8200000000000001e-02	1.5500000000000000e+03	4.3432609779638658e-311	4.3432609779085304e-311	4.3432609779638658e-311
27	11	3.5714599999999999e-02	4.8591499999999999e-01	0.0000000000000000e+00	0.0000000000000000e+00	0.0000000000000000e+00	0.0000000000000000e+00	0.0000000000000000e+00	0.0000000000000000e+00	7.7967800000000004e-02	1.8200000000000001e-02	1.5500000000000000e+03	4.3432609779638658e-311	4.3432609779085304e-311	4.3432609779638658e-311
28	11	2.8571900000000001e-02	4.7887299999999999e-01	0.0000000000000000e+00	0.0000000000000000e+00	0.0000000000000000e+00	0.0000000000000000e+00	0.0000000000000000e+00	0.0000000000000000e+00	7.7967800000000004e-02	1.8200000000000001e-02	1.5500000000000000e+03	4.3432609779638658e-311	4.3432609779085304e-311	4.3432609779638658e-311
29	11	1.4286200000000001e-02	4.7183100000000000e-01	0.0000000000000000e+00	0.0000000000000000e+00	0.0000000000000000e+00	0.0000000000000000e+00	0.0000000000000000e+00	0.0000000000000000e+00	7.7967800000000004e-02	1.8200000000000001e-02	1.5500000000000000e+03	4.3432609779638658e-311	4.3432609779085304e-311	4.3432609779638658e-311
30	11	4.2857199999999998e-02	4.9295800000000001e-01	0.0000000000000000e+00	0.0000000000000000e+00	0.0000000000000000e+00	0.0000000000000000e+00	0.0000000000000000e+00	0.0000000000000000e+00	7.7967800000000004e-02	1.8200000000000001e-02	1.5500000000000000e+03	4.3432609779638658e-311	4.3432609779085304e-311	4.3432609779638658e-311
31	11	2.1429199999999999e-02	4.7183100000000000e-01	0.0000000000000000e+00	0.0000000000000000e+00	0.0000000000000000e+00	0.0000000000000000e+00	0.0000000000000000e+00	0.0000000000000000e+00	7.7967800000000004e-02	1.8200000000000001e-02	1.5500000000000000e+03	4.3432609779638658e-311	4.3432609779085304e-311	4.3432609779638658e-311
32	11	5.0000000000000003e-02	5.0000000000000000e-01	0.0000000000000000e+00	0.0000000000000000e+00	0.0000000000000000e+00	0.0000000000000000e+00	0.0000000000000000e+00	0.0000000000000000e+00	7.7967800000000004e-02	1.8200000000000001e-02	1.5500000000000000e+03	4.3432609779638658e-311	4.3432609779085304e-311	4.3432609779638658e-311
33	11	3.5714900000000001e-02	4.7887299999999999e-01	0.0000000000000000e+00	0.0000000000000000e+00	0.0000000000000000e+00	0.0000000000000000e+00	0.0000000000000000e+00	0.0000000000000000e+00	7.7967800000000004e-02	1.8200000000000001e-02	1.5500000000000000e+03	4.3432609779638658e-311	4.3432609779085304e-311	4.3432609779638658e-311
34	11	4.2857500000000000e-02	4.8591499999999999e-01	0.0000000000000000e+00	0.0000000000000000e+00	0.0000000000000000e+00	0.0000000000000000e+00	0.0000000000000000e+00	0.0000000000000000e+00	7.7967800000000004e-02	1.8200000000000001e-02	1.5500000000000000e+03	4.3432609779638658e-311	4.3432609779085304e-311	4.3432609779638658e-311
35	0	0.0000000000000000e+00	4.6478900000000001e-01	0.0000000000000000e+00	0.0000000000000000e+00	0.0000000000000000e+00	0.0000000000000000e+00	0.0000000000000000e+00	0.0000000000000000e+00	7.7967800000000004e-02	1.8200000000000001e-02	1.5500000000000000e+03	4.3432609779638658e-311	4.3432609779085304e-311	4.3432609779638658e-311
36	11	7.1431899999999998e-03	4.6478900000000001e-01	0.0000000000000000e+00	0.0000000000000000e+00	0.0000000000000000e+00	0.0000000000000000e+00	0.0000000000000000e+00	0.0000000000000000e+00	7.7967800000000004e-02	1.8200000000000001e-02	1.5500000000000000e+03	4.3432609779638658e-311	4.3432609779085304e-311	4.3432609779638658e-311
37	11	2.8572299999999998e-02	4.7183100000000000e-01	0.0000000000000000e+00	0.0000000000000000e+00	0.0000000000000000e+00	0.0000000000000000e+00	0.0000000000000000e+00	0.0000000000000000e+00	7.7967800000000004e-02	1.8200000000000001e-02	1.5500000000000000e+03	4.3432609779638658e-311	4.3432609779085304e-311	4.3432609779638658e-311
38	11	5.0000099999999999e-02	4.9295800000000001e-01	0.0000000000000000e+00	0.0000000000000000e+00	0.0000000000000000e+00	0.0000000000000000e+00	0.0000000000000000e+00	0.0000000000000000e+00	7.7967800000000004e-02	1.8200000000000001e-02	1.5500000000000000e+03	4.3432609779638658e-311	4.3432609779085304e-311	4.3432609779638658e-311
39	11	1.4286399999999999e-02	4.6478900000000001e-01	0.0000000000000000e+00	0.0000000000000000e+00	0.0000000000000000e+00	0.0000000000000000e+00	0.0000000000000000e+00	0.0000000000000000e+00	7.7967800000000004e-02	1.8200000000000001e-02	1.5500000000000000e+03	4.3432609779638658e-311	4.3432609779085304e-311	4.3432609779638658e-311
40	11	2.1429600000000000e-02	4.6478900000000001e-01	0.0000000000000000e+00	0.0000000000000000e+00	0.0000000000000000e+00	0.0000000000000000e+00	0.0000000000000000e+00	0.0000000000000000e+00	7.7967800000000004e-02	1.8200000000000001e-02	1.5500000000000000e+03	4.3432609779638658e-311	4.3432609779085304e-311	4.3432609779638658e-311
41	11	4.2857899999999997e-02	4.7887299999999999e-01	0.0000000000000000e+00	0.0000000000000000e+00	0.0000000000000000e+00	0.0000000000000000e+00	0.0000000000000000e+00	0.0000000000000000e+00	7.7967800000000004e-02	1.8200000000000001e-02	1.5500000000000000e+03	4.3432609779638658e-311	4.3432609779085304e-311	4.3432609779638658e-311
42	11	3.5715400000000001e-02	4.7183100000000000e-01	0.0000000000000000e+00	0.0000000000000000e+00	0.0000000000000000e+00	0.0000000000000000e+00	0.0000000000000000e+00	0.0000000000000000e+00	7.7967800000000004e-02	1.8200000000000001e-02	1.5500000000000000e+03	4.3432609779638658e-311	4.3432609779085304e-311	4.3432609779638658e-311
43	11	5.0000400000000000e-02	4.8591499999999999e-01	0.0000000000000000e+00	0.0000000000000000e+00	0.0000000000000000e+00	0.0000000000000000e+00	0.0000000000000000e+00	0.0000000000000000e+00	7.7967800000000004e-02	1.8200000000000001e-02	1.5500000000000000e+03	4.3432609779638658e-311	4.3432609779085304e-311	4.3432609779638658e-311
44	11	5.7142900000000003e-02	5.0000000000000000e-01	0.0000000000000000e+00	0.0000000000000000e+00	0.0000000000000000e+00	0.0000000000000000e+00	0.0000000000000000e+00	0.0000000000000000e+00	7.7967800000000004e-02	1.8200000000000001e-02	1.5500000000000000e+03	4.3432609779638658e-311	4.3432609779085304e-311	4.3432609779638658e-311
45	11	2.8572799999999999e-02	4.6478900000000001e-01	0.0000000000000000e+00	0.0000000000000000e+00	0.0000000000000000e+00	0.0000000000000000e+00	0.0000000000000000e+00	0.0000000000000000e+00	7.7967800000000004e-02	1.8200000000000001e-02	1.5500000000000000e+03	4.3432609779638658e-311	4.3432609779085304e-311	4.3432609779638658e-311
46	0	0.0000000000000000e+00	4.5774599999999999e-01	0.0000000000000000e+00	0.0000000000000000e+00	0.0000000000000000e+00	0.0000000000000000e+00	0.0000000000000000e+00	0.0000000000000000e+00	7.7967800000000004e-02	1.8200000000000001e-02	1.5500000000000000e+03	4.3432609779638658e-311	4.3432609779085304e-311	4.3432609779638658e-311
47	11	7.1433399999999998e-03	4.5774599999999999e-01	0.0000000000000000e+00	0.0000000000000000e+00	0.0000000000000000e+00	0.0000000000000000e+00	0.0000000000000000e+00	0.0000000000000000e+00	7.7967800000000004e-02	1.8200000000000001e-02	1.5500000000000000e+03	4.3432609779638658e-311	4.3432609779085304e-311	4.3432609779638658e-311
48	11	5.7142999999999999e-02	4.9295800000000001e-01	0.0000000000000000e+00	0.0000000000000000e+00	0.0000000000000000e+00	0.0000000000000000e+00	0.0000000000000000e+00	0.0000000000000000e+00	7.7967800000000004e-02	1.8200000000000001e-02	1.5500000000000000e+03	4.3432609779638658e-311	4.3432609779085304e-311	4.3432609779638658e-311
49	11	1.4286699999999999e-02	4.5774599999999999e-01	0.0000000000000000e+00	0.0000000000000000e+00	0.0000000000000000e+00	0.0000000000000000e+00	0.0000000000000000e+00	0.0000000000000000e+00	7.7967800000000004e-02	1.8200000000000001e-02	1.5500000000000000e+03	4.3432609779638658e-311	4.3432609779085304e-311	4.3432609779638658e-311
50	11	4.2858500000000001e-02	4.7183100000000000e-01	0.0000000000000000e+00	0.0000000000000000e+00	0.0000000000000000e+00	0.0000000000000000e+00	0.0000000000000000e+00	0.0000000000000000e+00	7.7967800000000004e-02	1.8200000000000001e-02	1.5500000000000000e+03	4.3432609779638658e-311	4.3432609779085304e-311	4.3432609779638658e-311
51	11	5.0000900000000001e-02	4.7887299999999999e-01	0.0000000000000000e+00	0.0000000000000000e+00	0.0000000000000000e+00	0.0000000000000000e+00	0.0000000000000000e+00	0.0000000000000000e+00	7.7967800000000004e-02	1.8200000000000001e-02	1.5500000000000000e+03	4.3432609779638658e-311	4.3432609779085304e-311	4.3432609779638658e-311
52	11	3.5715999999999998e-02	4.6478900000000001e-01	0.0000000000000000e+00	0.0000000000000000e+00	0.0000000000000000e+00	0.0000000000000000e+00	0.0000000000000000e+00	0.0000000000000000e+00	7.7967800000000004e-02	1.8200000000000001e-02	1.5500000000000000e+03	4.3432609779638658e-311	4.3432609779085304e-311	4.3432609779638658e-311
53	11	2.1430000000000001e-02	4.5774599999999999e-01	0.0000000000000000e+00	0.0000000000000000e+00	0.0000000000000000e+00	0.0000000000000000e+00	0.0000000000000000e+00	0.0000000000000000e+00	7.7967800000000004e-02	1.8200000000000001e-02	1.5500000000000000e+03	4.3432609779638658e-311	4.3432609779085304e-311	4.3432609779638658e-311
54	11	5.7143300000000001e-02	4.8591499999999999e-01	0.0000000000000000e+00	0.0000000000000000e+00	0.0000000000000000e+00	0.0000000000000000e+00	0.0000000000000000e+00	0.0000000000000000e+00	7.7967800000000004e-02	1.8200000000000001e-02	1.5500000000000000e+03	4.3432609779638658e-311	4.3432609779085304e-311	4.3432609779638658e-311
55	11	6.4285700000000001e-02	5.0000000000000000e-01	0.0000000000000000e+00	0.0000000000000000e+00	0.0000000000000000e+00	0.0000000000000000e+00	0.0000000000000000e+00	0.0000000000000000e+00	7.7967800000000004e-02	1.8200000000000001e-02	1.5500000000000000e+03	4.3432609779638658e-311	4.3432609779085304e-311	4.3432609779638658e-311
56	11	2.8573399999999999e-02	4.5774599999999999e-01	0.0000000000000000e+00	0.0000000000000000e+00	0.0000000000000000e+00	0.0000000000000000e+00	0.0000000000000000e+00	0.0000000000000000e+00	7.7967800000000004e-02	1.8200000000000001e-02	1.5500000000000000e+03	4.3432609779638658e-311	4.3432609779085304e-311	4.3432609779638658e-311
57	0	0.0000000000000000e+00	4.5070399999999999e-01	0.0000000000000000e+00	0.0000000000000000e+00	0.0000000000000000e+00	0.0000000000000000e+00	0.0000000000000000e+00	0.0000000000000000e+00	7.7967800000000004e-02	1.8200000000000001e-02	1.5500000000000000e+03	4.3432609779638658e-311	4.3432609779085304e-311	4.3432609779638658e-311
58	11	5.0001499999999997e-02	4.7183100000000000e-01	0.0000000000000000e+00	0.0000000000000000e+00	0.0000000000000000e+00	0.0000000000000000e+00	0.0000000000000000e+00	0.0000000000000000e+00	7.7967800000000004e-02	1.8200000000000001e-02	1.5500000000000000e+03	4.3432609779638658e-311	4.3432609779085304e-311	4.3432609779638658e-311
59	11	7.1435099999999996e-03	4.5070399999999999e-01	0.0000000000000000e+00	0.0000000000000000e+00	0.0000000000000000e+00	0.0000000000000000e+00	0.0000000000000000e+00	0.0000000000000000e+00	7.7967800000000004e-02	1.8200000000000001e-02	1.5500000000000000e+03	4.3432609779638658e-311	4.3432609779085304e-311	4.3432609779638658e-311
60	11	6.4285800000000004e-02	4.9295800000000001e-01	0.0000000000000000e+00	0.0000000000000000e+00	0.0000000000000000e+00	0.0000000000000000e+00	0.0000000000000000e+00	0.0000000000000000e+00	7.7967800000000004e-02	1.8200000000000001e-02	1.5500000000000000e+03	4.3432609779638658e-311	4.3432609779085304e-311	4.3432609779638658e-311
61	11	4.2859200000000000e-02	4.6478900000000001e-01	0.0000000000000000e+00	0.0000000000000000e+00	0.0000000000000000e+00	0.0000000000000000e+00	0.0000000000000000e+00	0.0000000000000000e+00	7.7967800000000004e-02	1.8200000000000001e-02	1.5500000000000000e+03	4.3432609779638658e-311	4.3432609779085304e-311	4.3432609779638658e-311
62	11	5.7143800000000002e-02	4.7887299999999999e-01	0.0000000000000000e+00	0.0000000000000000e+00	0.0000000000000000e+00	0.0000000000000000e+00	0.0000000000000000e+00	0.0000000000000000e+00	7.7967800000000004e-02	1.8200000000000001e-02	1.5500000000000000e+03	4.3432609779638658e-311	4.3432609779085304e-311	4.3432609779638658e-311
63	11	1.4286999999999999e-02	4.5070399999999999e-01	0.0000000000000000e+00	0.0000000000000000e+00	0.0000000000000000e+00	0.0000000000000000e+00	0.0000000000000000e+00	0.0000000000000000e+00	7.7967800000000004e-02	1.8200000000000001e-02	1.5500000000000000e+03	4.3432609779638658e-311	4.3432609779085304e-311	4.3432609779638658e-311
64	11	3.5716699999999997e-02	4.5774599999999999e-01	0.0000000000000000e+00	0.0000000000000000e+00	0.0000000000000000e+00	0.0000000000000000e+00	0.0000000000000000e+00	0.0000000000000000e+00	7.7967800000000004e-02	1.8200000000000001e-02	1.5500000000000000e+03	4.3432609779638658e-311	4.3432609779085304e-311	4.3432609779638658e-311
65	11	2.1430500000000002e-02	4.5070399999999999e-01	0.0000000000000000e+00	0.0000000000000000e+00	0.0000000000000000e+00	0.0000000000000000e+00	0.0000000000000000e+00	0.0000000000000000e+00	7.7967800000000004e-02	1.8200000000000001e-02	1.5500000000000000e+03	4.3432609779638658e-311	4.3432609779085304e-311	4.3432609779638658e-311
66	11	6.4286200000000002e-02	4.8591499999999999e-01	0.0000000000000000e+00	0.0000000000000000e+00	0.0000000000000000e+00	0.0000000000000000e+00	0.0000000000000000e+00	0.0000000000000000e+00	7.7967800000000004e-02	1.8200000000000001e-02	1.5500000000000000e+03	4.3432609779638658e-311	4.3432609779085304e-311	4.3432609779638658e-311
67	11	7.1428599999999995e-02	5.0000000000000000e-01	0.0000000000000000e+00	0.0000000000000000e+00	0.0000000000000000e+00	0.0000000000000000e+00	0.0000000000000000e+00	0.0000000000000000e+00	7.7967800000000004e-02	1.8200000000000001e-02	1.5500000000000000e+03	4.3432609779638658e-311	4.3432609779085304e-311	4.3432609779638658e-311
68	11	5.0002400000000002e-02	4.6478900000000001e-01	0.0000000000000000e+00	0.0000000000000000e+00	0.0000000000000000e+00	0.0000000000000000e+00	0.0000000000000000e+00	0.0000000000000000e+00	7.7967800000000004e-02	1.8200000000000001e-02	1.5500000000000000e+03	4.3432609779638658e-311	4.3432609779085304e-311	4.3432609779638658e-311
69	11	5.7144599999999997e-02	4.7183100000000000e-01	0.0000000000000000e+00	0.0000000000000000e+00	0.0000000000000000e+00	0.0000000000000000e+00	0.0000000000000000e+00	0.0000000000000000e+00	7.7967800000000004e-02	1.8200000000000001e-02	1.5500000000000000e+03	4.3432609779638658e-311	4.3432609779085304e-311	4.3432609779638658e-311
70	11	2.8573999999999999e-02	4.5070399999999999e-01	0.0000000000000000e+00	0.0000000000000000e+00	0.0000000000000000e+00	0.0000000000000000e+00	0.0000000000000000e+00	0.0000000000000000e+00	7.7967800000000004e-02	1.8200000000000001e-02	1.5500000000000000e+03	4.3432609779638658e-311	4.3432609779085304e-311	4.3432609779638658e-311
71	11	4.2860000000000002e-02	4.5774599999999999e-01	0.0000000000000000e+00	0.0000000000000000e+00	0.0000000000000000e+00	0.0000000000000000e+00	0.0000000000000000e+00	0.0000000000000000e+00	7.7967800000000004e-02	1.8200000000000001e-02	1.5500000000000000e+03	4.3432609779638658e-311	4.3432609779085304e-311	4.3432609779638658e-311
72	11	6.4286800000000005e-02	4.7887299999999999e-01	0.0000000000000000e+00	0.0000000000000000e+00	0.0000000000000000e+00	0.0000000000000000e+00	0.0000000000000000e+00	0.0000000000000000e+00	7.7967800000000004e-02	1.8200000000000001e-02	1.5500000000000000e+03	4.3432609779638658e-311	4.3432609779085304e-311	4.3432609779638658e-311
73	0	0.0000000000000000e+00	4.4366200000000000e-01	0.0000000000000000e+00	0.0000000000000000e+00	0.0000000000000000e+00	0.0000000000000000e+00	0.0000000000000000e+00	0.0000000000000000e+00	7.7967800000000004e-02	1.8200000000000001e-02	1.5500000000000000e+03	4.3432609779638658e-311	4.3432609779085304e-311	4.3432609779638658e-311
74	11	7.1428699999999998e-02	4.9295800000000001e-01	0.0000000000000000e+00	0.0000000000000000e+00	0.0000000000000000e+00	0.0000000000000000e+00	0.0000000000000000e+00	0.0000000000000000e+00	7.7967800000000004e-02	1.8200000000000001e-02	1.5500000000000000e+03	4.3432609779638658e-311	4.3432609779085304e-311	4.3432609779638658e-311
75	11	7.1437000000000002e-03	4.4366200000000000e-01	0.0000000000000000e+00	0.0000000000000000e+00	0.0000000000000000e+00	0.0000000000000000e+00	0.0000000000000000e+00	0.0000000000000000e+00	7.7967800000000004e-02	1.8200000000000001e-02	1.5500000000000000e+03	4.3432609779638658e-311	4.3432609779085304e-311	4.3432609779638658e-311
76	11	1.4287400000000000e-02	4.4366200000000000e-01	0.0000000000000000e+00	0.0000000000000000e+00	0.0000000000000000e+00	0.0000000000000000e+00	0.0000000000000000e+00	0.0000000000000000e+00	7.7967800000000004e-02	1.8200000000000001e-02	1.5500000000000000e+03	4.3432609779638658e-311	4.3432609779085304e-311	4.3432609779638658e-311
77	11	3.5717499999999999e-02	4.5070399999999999e-01	0.0000000000000000e+00	0.0000000000000000e+00	0.0000000000000000e+00	0.0000000000000000e+00	0.0000000000000000e+00	0.0000000000000000e+00	7.7967800000000004e-02	1.8200000000000001e-02	1.5500000000000000e+03	4.3432609779638658e-311	4.3432609779085304e-311	4.3432609779638658e-311
78	11	7.1429099999999995e-02	4.8591499999999999e-01	0.0000000000000000e+00	0.0000000000000000e+00	0.0000000000000000e+00	0.0000000000000000e+00	0.0000000000000000e+00	0.0000000000000000e+00	7.7967800000000004e-02	1.8200000000000001e-02	1.5500000000000000e+03	4.3432609779638658e-311	4.3432609779085304e-311	4.3432609779638658e-311
79	11	2.1431100000000002e-02	4.4366200000000000e-01	0.0000000000000000e+00	0.0000000000000000e+00	0.0000000000000000e+00	0.0000000000000000e+00	0.0000000000000000e+00	0.0000000000000000e+00	7.7967800000000004e-02	1.8200000000000001e-02	1.5500000000000000e+03	4.3432609779638658e-311	4.3432609779085304e-311	4.3432609779638658e-311
80	11	5.7145599999999998e-02	4.6478900000000001e-01	0.0000000000000000e+00	0.0000000000000000e+00	0.0000000000000000e+00	0.0000000000000000e+00	0.0000000000000000e+00	0.0000000000000000e+00	7.7967800000000004e-02	1.8200000000000001e-02	1.5500000000000000e+03	4.3432609779638658e-311	4.3432609779085304e-311	4.3432609779638658e-311
81	11	5.0003400000000003e-02	4.5774599999999999e-01	0.0000000000000000e+00	0.0000000000000000e+00	0.0000000000000000e+00	0.0000000000000000e+00	0.0000000000000000e+00	0.0000000000000000e+00	7.7967800000000004e-02	1.8200000000000001e-02	1.5500000000000000e+03	4.3432609779638658e-311	4.3432609779085304e-311	4.3432609779638658e-311
82	11	6.4287700000000003e-02	4.7183100000000000e-01	0.0000000000000000e+00	0.0000000000000000e+00	0.0000000000000000e+00	0.0000000000000000e+00	0.0000000000000000e+00	0.0000000000000000e+00	7.7967800000000004e-02	1.8200000000000001e-02	1.5500000000000000e+03	4.3432609779638658e-311	4.3432609779085304e-311	4.3432609779638658e-311
83	11	7.8571400000000000e-02	5.0000000000000000e-01	0.0000000000000000e+00	0.0000000000000000e+00	0.0000000000000000e+00	0.0000000000000000e+00	0.0000000000000000e+00	0.0000000000000000e+00	7.7967800000000004e-02	1.8200000000000001e-02	1.5500000000000000e+03	4.3432609779638658e-311	4.3432609779085304e-311	4.3432609779638658e-311
84	11	4.2861000000000003e-02	4.5070399999999999e-01	0.0000000000000000e+00	0.0000000000000000e+00	0.0000000000000000e+00	0.0000000000000000e+00	0.0000000000000000e+00	0.0000000000000000e+00	7.7967800000000004e-02	1.8200000000000001e-02	1.5500000000000000e+03	4.3432609779638658e-311	4.3432609779085304e-311	4.3432609779638658e-311
85	11	2.8574800000000001e-02	4.4366200000000000e-01	0.0000000000000000e+00	0.0000000000000000e+00	0.0000000000000000e+00	0.0000000000000000e+00	0.0000000000000000e+00	0.0000000000000000e+00	7.7967800000000004e-02	1.8200000000000001e-02	1.5500000000000000e+03	4.3432609779638658e-311	4.3432609779085304e-311	4.3432609779638658e-311
86	11	7.1429800000000002e-02	4.7887299999999999e-01	0.0000000000000000e+00	0.0000000000000000e+00	0.0000000000000000e+00	0.0000000000000000e+00	0.0000000000000000e+00	0.0000000000000000e+00	7.7967800000000004e-02	1.8200000000000001e-02	1.5500000000000000e+03	4.3432609779638658e-311	4.3432609779085304e-311	4.3432609779638658e-311
87	11	7.8571600000000005e-02	4.9295800000000001e-01	0.0000000000000000e+00	0.0000000000000000e+00	0.0000000000000000e+00	0.0000000000000000e+00	0.0000000000000000e+00	0.0000000000000000e+00	7.7967800000000004e-02	1.8200000000000001e-02	1.5500000000000000e+03	4.3432609779638658e-311	4.3432609779085304e-311	4.3432609779638658e-311
88	0	0.0000000000000000e+00	4.3662000000000001e-01	0.0000000000000000e+00	0.0000000000000000e+00	0.0000000000000000e+00	0.0000000000000000e+00	0.0000000000000000e+00	0.0000000000000000e+00	7.7967800000000004e-02	1.8200000000000001e-02	1.5500000000000000e+03	4.3432609779638658e-311	4.3432609779085304e-311	4.3432609779638658e-311
89	11	7.1439099999999998e-03	4.3662000000000001e-01	0.0000000000000000e+00	0.0000000000000000e+00	0.0000000000000000e+00	0.0000000000000000e+00	0.0000000000000000e+00	0.0000000000000000e+00	7.7967800000000004e-02	1.8200000000000001e-02	1.5500000000000000e+03	4.3432609779638658e-311	4.3432609779085304e-311	4.3432609779638658e-311